36
Lattice="8.252999978599306 0.0 0.0 4.126499989299653 7.147307638899425 0.0 0.0 0.0 26.73854626492293" Properties=species:S:1:pos:R:3:tags:I:1:forces:R:3:magmoms:R:1 energy=-171.78528405999998 stress="0.012177546967485997 -1.5395930560816233e-07 -5.929433669589096e-09 -1.5395930560816233e-07 0.012177724994050792 -3.4640375648652086e-09 -5.929433669589096e-09 -3.4640375648652086e-09 0.003167981147712426" dipole="_JSON [[0.0, 0.0, 0.0]]" magmom=0.0 free_energy=-171.78780016 pbc="T T T"
Ag       0.00000000       0.00000000      10.00000000        4      -0.00000393      -0.00000239       0.22474420       0.00000000
Ag       2.75099999       0.00000000      10.00000000        4      -0.00000396      -0.00000230       0.22474405       0.00000000
Ag       5.50199999       0.00000000      10.00000000        4      -0.00000413      -0.00000234       0.22474412       0.00000000
Ag       1.37550000       2.38243588      10.00000000        4      -0.00000401      -0.00000236       0.22474418       0.00000000
Ag       4.12649999       2.38243588      10.00000000        4      -0.00000415      -0.00000240       0.22474421       0.00000000
Ag       6.87749998       2.38243588      10.00000000        4      -0.00000415      -0.00000233       0.22474407       0.00000000
Ag       2.75099999       4.76487176      10.00000000        4      -0.00000401      -0.00000237       0.22474434       0.00000000
Ag       5.50199999       4.76487176      10.00000000        4      -0.00000411      -0.00000225       0.22474422       0.00000000
Ag       8.25299998       4.76487176      10.00000000        4      -0.00000394      -0.00000220       0.22474427       0.00000000
Ag       1.37550000       0.79414529      12.24618209        3       0.00000104       0.00000058      -0.22125316       0.00000000
Ag       4.12649999       0.79414529      12.24618209        3       0.00000084       0.00000083      -0.22125327       0.00000000
Ag       6.87749998       0.79414529      12.24618209        3       0.00000123       0.00000082      -0.22125320       0.00000000
Ag       2.75099999       3.17658117      12.24618209        3       0.00000107       0.00000060      -0.22125309       0.00000000
Ag       5.50199999       3.17658117      12.24618209        3       0.00000110       0.00000077      -0.22125310       0.00000000
Ag       8.25299998       3.17658117      12.24618209        3       0.00000108       0.00000071      -0.22125326       0.00000000
Ag       4.12649999       5.55901705      12.24618209        3       0.00000123       0.00000055      -0.22125333       0.00000000
Ag       6.87749998       5.55901705      12.24618209        3       0.00000102       0.00000046      -0.22125312       0.00000000
Ag       9.62849998       5.55901705      12.24618209        3       0.00000092       0.00000027      -0.22125343       0.00000000
Ag       0.00000013       1.58829066      14.44650687        2      -0.00000065      -0.00000033       0.00227555       0.00000000
Ag       2.75100010       1.58829066      14.44650691        2      -0.00000056      -0.00000021       0.00227506       0.00000000
Ag       5.50200010       1.58829064      14.44650688        2      -0.00000041      -0.00000007       0.00227510       0.00000000
Ag       1.37550012       3.97072653      14.44650692        2      -0.00000047      -0.00000031       0.00227515       0.00000000
Ag       4.12650011       3.97072656      14.44650692        2      -0.00000056      -0.00000053       0.00227496       0.00000000
Ag       6.87750010       3.97072656      14.44650693        2      -0.00000066      -0.00000045       0.00227499       0.00000000
Ag       2.75100012       6.35316240      14.44650687        2      -0.00000050      -0.00000030       0.00227530       0.00000000
Ag       5.50200011       6.35316239      14.44650689        2      -0.00000060      -0.00000027       0.00227519       0.00000000
Ag       8.25300011       6.35316243      14.44650686        2      -0.00000070      -0.00000054       0.00227536       0.00000000
Ag       0.00000042       0.00000028      16.66175603        1       0.00000375       0.00000189      -0.00576605       0.00000000
Ag       2.75100042       0.00000024      16.66175604        1       0.00000351       0.00000223      -0.00576613       0.00000000
Ag       5.50200043       0.00000023      16.66175594        1       0.00000345       0.00000241      -0.00576585       0.00000000
Ag       1.37550046       2.38243615      16.66175610        1       0.00000336       0.00000202      -0.00576649       0.00000000
Ag       4.12650041       2.38243617      16.66175598        1       0.00000393       0.00000176      -0.00576595       0.00000000
Ag       6.87750043       2.38243613      16.66175602        1       0.00000337       0.00000189      -0.00576629       0.00000000
Ag       2.75100045       4.76487200      16.66175606        1       0.00000341       0.00000221      -0.00576596       0.00000000
Ag       5.50200044       4.76487201      16.66175612        1       0.00000334       0.00000207      -0.00576650       0.00000000
Ag       8.25300040       4.76487202      16.66175605        1       0.00000382       0.00000190      -0.00576616       0.00000000
